##############################################################################
#                                                                            #
# O-V              # V2O5                                          #  452521 #
#                                                                            #
##############################################################################
#                                                                            #
#                           Pearson's Crystal Data                           #
#      Crystal Structure Database for Inorganic Compounds (on DVD)           #
#                              Release 2023/24                               #
#                  Editors: Pierre Villars and Karin Cenzual                 #
#                                                                            #
#   Copyright (c) ASM International & Material Phases Data System (MPDS),    #
# Switzerland & National Institute for Materials Science (NIMS), Japan, 2023 #
#                   All rights reserved. Version 2023.07                     #
#                                                                            #
#   This copy of Pearson's Crystal Data is licensed to:                      #
#   Demonstration Version                                                    #
#                                                                            #
##############################################################################

data_452521
_audit_creation_date                     2024-08-15
_audit_creation_method
;
Pearson's Crystal Data browser
;
#_database_code_PCD                      452521
_database_code_PDF                       04-003-1780

# Entry summary

_chemical_formula_structural             'V~2~ O~5~'
_chemical_formula_sum                    'O5 V2'
_chemical_name_mineral                   shcherbinaite
_chemical_compound_source                ?
_chemical_name_structure_type            V~2~O~5~,oP14,59
_chemical_formula_weight                 181.9

# Bibliographic data

_publ_section_title
;
Evolution des tenseurs de dilatation thermique en fonction de la temperature. III. Etude experimentale des oxydes PbO~1.57~, PbWO~4~, V~2~O~5~ et V~2~O~3~ et analyse des resultats
;
_journal_coden_ASTM                      JSSCBI
_journal_name_full                       'J. Solid State Chem.'
_journal_year                            1978
_journal_volume                          25
_journal_page_first                      315
_journal_page_last                       324
_journal_language                        French
loop_
 _publ_author_name
 _publ_author_address
'Beguemsi T.'
;
Ecole Centrale des Arts et Manufactures
Laboratoire de Chimie-Physique du Solide
Chatenay-Malabry
France
;
'Garnier P.'
;
Ecole Centrale des Arts et Manufactures
Laboratoire de Chimie-Physique du Solide
Chatenay-Malabry
France
;
'Weigel D.'
;
Ecole Centrale des Arts et Manufactures
Laboratoire de Chimie-Physique du Solide
Chatenay-Malabry
France
;

# Standardized crystallographic data

_cell_length_a                           3.565
_cell_length_b                           11.512
_cell_length_c                           4.378
_cell_angle_alpha                        90
_cell_angle_beta                         90
_cell_angle_gamma                        90
_cell_volume                             179.67
_cell_formula_units_Z                    2
_space_group_IT_number                   59
_space_group_name_H-M_alt                'P m m n (origin choice 2)'
loop_
 _space_group_symop_id
 _space_group_symop_operation_xyz
 1 'x, y, z'
 2 '1/2-x, 1/2-y, z'
 3 '1/2-x, y, z'
 4 '-x, -y, -z'
 5 '-x, 1/2+y, -z'
 6 '1/2+x, -y, -z'
 7 '1/2+x, 1/2+y, -z'
 8 'x, 1/2-y, z'

# Atomic positions taken from type-defining entry

loop_
 _atom_type_symbol
 V
 O
loop_
 _atom_site_label
 _atom_site_type_symbol
 _atom_site_symmetry_multiplicity
 _atom_site_Wyckoff_symbol
 _atom_site_fract_x
 _atom_site_fract_y
 _atom_site_fract_z
 _atom_site_occupancy
 V1 V 4 e 0.25 0.10118 0.3917 1
 O1 O 4 e 0.25 0.1043 0.031 1
 O2 O 4 e 0.25 0.5689 0.503 1
 O3 O 2 a 0.25 0.25 0.501 1


_exptl_crystal_colour                    ?
_exptl_crystal_density_meas              ?
_exptl_crystal_density_diffrn            3.36
_cell_measurement_temperature            300
_cell_measurement_radiation              X-rays
_cell_measurement_reflns_used            ?
_diffrn_ambient_temperature              ?
_diffrn_measurement_device               ?
_diffrn_measurement_device_type          ?
_diffrn_radiation_type                   ?
_diffrn_reflns_number                    ?
_exptl_absorpt_coefficient_mu            ?
_exptl_absorpt_correction_type           ?
_computing_structure_solution            ?
_refine_ls_number_parameters             ?
_refine_ls_number_reflns                 ?
_refine_ls_R_factor_gt                   ?
_refine_ls_wR_factor_gt                  ?

# End of data set 452521
