
#(C) 2025 by FIZ Karlsruhe - Leibniz Institute for Information Infrastructure.  All rights reserved.
data_169074-ICSD
_database_code_ICSD 169074
_audit_creation_date 2011-02-01
_chemical_name_common 'Barium dititanium diarsenide oxide'
_chemical_formula_structural 'Ba Ti2 As2 O'
_chemical_formula_sum 'As2 Ba1 O1 Ti2'
_chemical_name_structure_type BaTi2As2O
_exptl_crystal_density_diffrn 5.56
_citation_title

;
Structure and physical properties for a new layered pnictide-oxide: Ba Ti2 As2
O
;
loop_
_citation_id
_citation_journal_full
_citation_year
_citation_journal_volume
_citation_page_first
_citation_page_last
_citation_journal_id_ASTM
primary 'Journal of Physics: Condensed Matter' 2010 22 1 5 JCOMEL
loop_
_citation_author_citation_id
_citation_author_name
primary 'Wang, X.-F.'
primary 'Yan, Y.-J.'
primary 'Ying, J.-J.'
primary 'Li, Q.-J.'
primary 'Zhang, M.'
primary 'Xu, N.'
primary 'Chen, X.-H.'
_cell_length_a 4.047(3)
_cell_length_b 4.047(3)
_cell_length_c 7.275(4)
_cell_angle_alpha 90.
_cell_angle_beta 90.
_cell_angle_gamma 90.
_cell_volume 119.15
_cell_formula_units_Z 1
_space_group_name_H-M_alt 'P 4/m m m'
_space_group_IT_number 123
loop_
_space_group_symop_id
_space_group_symop_operation_xyz
1 'y, x, -z'
2 '-y, -x, -z'
3 '-y, x, -z'
4 'y, -x, -z'
5 '-x, y, -z'
6 'x, -y, -z'
7 'x, y, -z'
8 '-x, -y, -z'
9 '-y, -x, z'
10 'y, x, z'
11 'y, -x, z'
12 '-y, x, z'
13 'x, -y, z'
14 '-x, y, z'
15 '-x, -y, z'
16 'x, y, z'
loop_
_atom_type_symbol
_atom_type_oxidation_number
Ba2+ 2
Ti3+ 3
As3- -3
O2- -2
loop_
_atom_site_label
_atom_site_type_symbol
_atom_site_symmetry_multiplicity
_atom_site_Wyckoff_symbol
_atom_site_fract_x
_atom_site_fract_y
_atom_site_fract_z
_atom_site_U_iso_or_equiv
_atom_site_occupancy
Ba1 Ba2+ 1 d 0.5 0.5 0.5 0.0205(3) 1.
Ti1 Ti3+ 2 f 0.5 0 0 0.0081(6) 1.
As1 As3- 2 g 0 0 0.7560(1) 0.0072(4) 1.
O1 O2- 1 c 0.5 0.5 0 0.0025(3) 1.
#End of TTdata_169074-ICSD
