
#(C) 2023 by FIZ Karlsruhe - Leibniz Institute for Information Infrastructure.  All rights reserved.
data_38081-ICSD
_database_code_ICSD 38081
_audit_creation_date 2022-08-01
_chemical_name_common 'Chromium aluminium boride (4/1/4)'
_chemical_formula_structural 'Cr4 Al B4'
_chemical_formula_sum 'Al1 B4 Cr4'
_exptl_crystal_density_diffrn 5.61
_citation_title

;
Crystal structure of Cr$_4$AlB$_4$: A new MAB phase compound discovered in
Cr-Al-B system
;
loop_
_citation_id
_citation_journal_full
_citation_year
_citation_journal_volume
_citation_page_first
_citation_page_last
_citation_journal_id_ASTM
primary 'Journal of Materials Science & Technology (Shenyang, China)' 2019 35
530 534 JSCTEQ
loop_
_citation_author_citation_id
_citation_author_name
primary 'Zhang, Haiming'
primary 'Dai, Fu-zhi'
primary 'Xiang, Huimin'
primary 'Zhang, Zhili'
primary 'Zhou, Yanchun'
_cell_length_a 2.9343(6)
_cell_length_b 18.8911(0)
_cell_length_c 2.9733(7)
_cell_angle_alpha 90.
_cell_angle_beta 90.
_cell_angle_gamma 90.
_cell_volume 164.82
_cell_formula_units_Z 2
_space_group_name_H-M_alt 'I m m m'
_space_group_IT_number 71
loop_
_space_group_symop_id
_space_group_symop_operation_xyz
1 'x, y, -z'
2 'x, -y, z'
3 '-x, y, z'
4 '-x, -y, -z'
5 '-x, -y, z'
6 '-x, y, -z'
7 'x, -y, -z'
8 'x, y, z'
9 'x+1/2, y+1/2, -z+1/2'
10 'x+1/2, -y+1/2, z+1/2'
11 '-x+1/2, y+1/2, z+1/2'
12 '-x+1/2, -y+1/2, -z+1/2'
13 '-x+1/2, -y+1/2, z+1/2'
14 '-x+1/2, y+1/2, -z+1/2'
15 'x+1/2, -y+1/2, -z+1/2'
16 'x+1/2, y+1/2, z+1/2'
loop_
_atom_type_symbol
_atom_type_oxidation_number
Cr0+ 0
Al0+ 0
B0+ 0
loop_
_atom_site_label
_atom_site_type_symbol
_atom_site_symmetry_multiplicity
_atom_site_Wyckoff_symbol
_atom_site_fract_x
_atom_site_fract_y
_atom_site_fract_z
_atom_site_B_iso_or_equiv
_atom_site_occupancy
Cr1 Cr0+ 4 g 0 0.2936(5) 0 . 1.
Cr2 Cr0+ 4 h 0.5 0.5859(7) 0 . 1.
Al1 Al0+ 2 b 0 0.5 0.5 . 1.
B1 B0+ 4 h 0 0.3839(8) 0.5 . 1.
B2 B0+ 4 g 0.5 0.6646(2) 0.5 . 1.
#End of TTdata_38081-ICSD
